; em.mdp — energy minimization (3HFM holo complex: HyHEL-10 Fab + lysozyme)
integrator      = steep
emtol           = 1000.0
emstep          = 0.01
nsteps          = 50000

cutoff-scheme   = Verlet
nstlist         = 10
pbc             = xyz

coulombtype     = PME
rcoulomb        = 1.0
pme_order       = 4
fourierspacing  = 0.16

rvdw            = 1.0
vdw-modifier    = Potential-shift-Verlet
DispCorr        = EnerPres
